12
	Energy: -165197.5468638
NZT         -1.92961        2.91752       -3.51240
C1Z         -0.68886        2.85193       -3.98139
NZ         -0.17108        1.63604       -4.11270
C2Z         -2.24582        1.61108       -3.31856
C2Z         -1.17879        0.83349       -3.68281
H2Z         -1.08329       -0.23967       -3.66732
H2Z         -3.20916        1.30951       -2.94162
C3Z          0.09993        4.09001       -4.31363
H3Z         -0.56018        4.89088       -4.63592
H3Z          0.81696        3.88760       -5.10477
H3Z          0.66328        4.46257       -3.45607
H1IZ         -3.0        3.3       -3.5
