5
	Energy: -1776990.9602831
ZnZ         3.48766        2.28480        4.91775
NZ          5.28982        3.09754        4.88925
NZ          2.05743        3.87504        4.48969
NZ          3.31246        1.30120        3.00210
NZ          2.89379        1.22188        6.47451
